 TITLE = "plot0012_rho_velocity"
 VARIABLES="X","Y","rho","U","V"
 ZONE N=5306 ,E=10382 , F=FEPOINT, ET=TRIANGLE
  0.000000000000000E+000  0.000000000000000E+000   1.30856240598726     
  0.225225414288547       8.085266379439093E-002
  8.000000000000000E-003 -1.531500000000000E-002   1.21046250578954     
  0.358467186979671      -0.355961994530642     
  1.600000000000000E-002 -2.127000000000000E-002   1.08967209914866     
  0.659892621309085      -0.403645385019990     
  2.400000000000000E-002 -2.566400000000000E-002   1.03773927079337     
  0.790700568658378      -0.373732993219062     
  3.200000000000000E-002 -2.923700000000000E-002   1.00077198357210     
  0.872668885308674      -0.350310235351363     
  4.000000000000000E-002 -3.227700000000000E-002  0.969480312748364     
  0.936668097269616      -0.325817033171121     
  4.800000000000000E-002 -3.493200000000000E-002  0.944976429281808     
  0.984703677156122      -0.303764961149376     
  5.600000000000000E-002 -3.729000000000000E-002  0.925523173884628     
   1.02289337248568      -0.279763448679337     
  6.666700000000000E-002 -4.006700000000000E-002  0.909739988512898     
   1.05436320794489      -0.257665196122330     
  7.733300000000000E-002 -4.250700000000000E-002  0.892306517244592     
   1.08791889197725      -0.235369438158153     
  8.799999999999999E-002 -4.467100000000000E-002  0.879003480179557     
   1.11341427710925      -0.215291454337658     
  9.866700000000000E-002 -4.660100000000000E-002  0.866098713394426     
   1.13725266591403      -0.197678921639410     
  0.109333000000000      -4.833000000000000E-002  0.855691290770026     
   1.15738613647192      -0.181354753856554     
  0.120000000000000      -4.988200000000000E-002  0.847095468643576     
   1.17484522679733      -0.165881445755051     
  0.130667000000000      -5.127600000000000E-002  0.838943790493929     
   1.19071183293210      -0.151344569955734     
  0.141333000000000      -5.252900000000000E-002  0.831384481713696     
   1.20454748513738      -0.137906600588301     
  0.152000000000000      -5.365300000000000E-002  0.825243732229890     
   1.21546505919400      -0.124845869829704     
  0.162667000000000      -5.465900000000000E-002  0.818991767986679     
   1.22599541698186      -0.112357808419209     
  0.173333000000000      -5.555700000000000E-002  0.809854702292443     
   1.24019964336615      -0.101477012555783     
  0.184000000000000      -5.635400000000000E-002  0.802474342510454     
   1.25130721332721      -9.082003655336078E-002
  0.194667000000000      -5.705700000000000E-002  0.797514515656860     
   1.25930661089307      -8.050693387148256E-002
  0.205333000000000      -5.767300000000000E-002  0.792560826962677     
   1.26871793205451      -7.125376810747867E-002
  0.216000000000000      -5.820600000000000E-002  0.789091138324397     
   1.27572346888134      -6.014960576002257E-002
  0.230857000000000      -5.882200000000000E-002  0.786983349136036     
   1.28023822416767      -4.970656155062010E-002
  0.245714000000000      -5.929900000000000E-002  0.783142235894086     
   1.28720050294092      -3.874817858581932E-002
  0.260571000000000      -5.964800000000000E-002  0.779388071379517     
   1.29368563880320      -2.817713230630143E-002
  0.275429000000000      -5.987800000000000E-002  0.775666139017572     
   1.29978290472232      -1.813633328449471E-002
  0.290286000000000      -5.999600000000000E-002  0.772366009584289     
   1.30497672096591      -8.440740394983267E-003
  0.305143000000000      -6.001100000000000E-002  0.769749473741283     
   1.30896623799908       7.884506628780751E-004
  0.320000000000000      -5.992800000000000E-002  0.767965530717222     
   1.31161452570008       9.718372951519325E-003
  0.334857000000000      -5.975300000000000E-002  0.767478008805427     
   1.31233462944321       1.849587799764009E-002
  0.349714000000000      -5.949200000000000E-002  0.771431101965526     
   1.30672450981567       2.620105159546031E-002
  0.364571000000000      -5.914900000000000E-002  0.796388756256268     
   1.27025411905136       3.124597795388116E-002
  0.379429000000000      -5.873000000000000E-002  0.848785759156739     
   1.19412773801032       3.477928098964300E-002
  0.394286000000000      -5.823800000000000E-002  0.878354735016144     
   1.15216589767034       3.942113963711640E-002
  0.409143000000000      -5.767700000000000E-002  0.871947164244344     
   1.16198738374226       4.602618121652274E-002
  0.424000000000000      -5.705100000000000E-002  0.872910355278780     
   1.16065082994396       5.062160967606750E-002
  0.438857000000000      -5.636200000000000E-002  0.879413925406366     
   1.15131734748480       5.455698305518499E-002
  0.453714000000000      -5.561500000000000E-002  0.882364543008327     
   1.14693908859130       5.885575925687685E-002
  0.468571000000000      -5.481200000000000E-002  0.886593014944428     
   1.14050210506499       6.262091363759258E-002
  0.483429000000000      -5.395600000000000E-002  0.890843181071943     
   1.13397407944418       6.622945173503159E-002
  0.498286000000000      -5.304800000000000E-002  0.894929195533048     
   1.12764632654960       6.970800584402527E-002
  0.513143000000000      -5.209200000000000E-002  0.899566895581716     
   1.12052875621020       7.276549665234980E-002
  0.528000000000000      -5.109000000000000E-002  0.904064596712489     
   1.11359253015420       7.574297199323848E-002
  0.542857000000000      -5.004300000000000E-002  0.908543901764316     
   1.10663394355921       7.857544485290785E-002
  0.557714000000000      -4.895300000000000E-002  0.913103564558686     
   1.09953590443688       8.118207817780299E-002
  0.572571000000000      -4.782300000000000E-002  0.917423643803695     
   1.09280567812183       8.361872952216484E-002
  0.587429000000000      -4.665300000000000E-002  0.921992919688068     
   1.08576992240683       8.595960073539630E-002
  0.602286000000000      -4.544500000000000E-002  0.926407542561964     
   1.07911503318024       8.808147695950441E-002
  0.617143000000000      -4.420100000000000E-002  0.930804994669753     
   1.07251532569664       9.013041659793737E-002
  0.632000000000000      -4.292100000000000E-002  0.935172979835082     
   1.06594280314399       9.201578964316993E-002
  0.646857000000000      -4.160700000000000E-002  0.939419131904620     
   1.05946074681214       9.382563755975551E-002
  0.661714000000000      -4.026000000000000E-002  0.943739448309336     
   1.05281875740501       9.546800605056424E-002
  0.676571000000000      -3.888000000000000E-002  0.947851519147369     
   1.04642299577349       9.719629182573498E-002
  0.691429000000000      -3.746800000000000E-002  0.952040942316330     
   1.03989962449343       9.870456487826117E-002
  0.706286000000000      -3.602500000000000E-002  0.956161033122338     
   1.03342234136946       0.100228376163302     
  0.721143000000000      -3.455100000000000E-002  0.960382095038978     
   1.02672695770965       0.101648256606334     
  0.736000000000000      -3.304700000000000E-002  0.964586557375117     
   1.01996380897447       0.102991580551141     
  0.750857000000000      -3.151400000000000E-002  0.968852569439625     
   1.01304337006617       0.104333794391289     
  0.765714000000000      -2.995100000000000E-002  0.973011717307865     
   1.00628274086733       0.105610861516761     
  0.780571000000000      -2.835800000000000E-002  0.977528348213427     
  0.999001857555226       0.106826617323865     
  0.795429000000000      -2.673600000000000E-002  0.981850596292387     
  0.992052207423731       0.107999351932419     
  0.810286000000000      -2.508500000000000E-002  0.986546386383267     
  0.984564433405980       0.108974510191895     
  0.825143000000000      -2.340400000000000E-002  0.991182062241173     
  0.977132368974212       0.110068720824094     
  0.840000000000000      -2.169400000000000E-002  0.996231541371632     
  0.968988033345295       0.110904772026991     
  0.854857000000000      -1.995300000000000E-002   1.00137842780612     
  0.960582041448509       0.111839564816069     
  0.869714000000000      -1.818300000000000E-002   1.00674548504338     
  0.951795043484410       0.112572725699134     
  0.884571000000000      -1.638100000000000E-002   1.01263902799787     
  0.942033421242854       0.113290208524203     
  0.899429000000000      -1.454800000000000E-002   1.01881142013850     
  0.931724915996543       0.113824646068189     
  0.914286000000000      -1.268400000000000E-002   1.02547649523570     
  0.920328319630113       0.114454552941355     
  0.929143000000000      -1.078600000000000E-002   1.03282109467221     
  0.907670239491816       0.114568136557119     
  0.944000000000000      -8.855000000000000E-003   1.04104934658977     
  0.892871049035845       0.115324930990495     
  0.958857000000000      -6.890000000000000E-003   1.05026908769873     
  0.875949167951695       0.114029409612637     
  0.973714000000000      -4.889000000000000E-003   1.05964723991419     
  0.857673348439486       0.115243371337045     
  0.988571000000000      -2.852000000000000E-003   1.07134980532954     
  0.831987104931662       0.126872624988095     
   1.00000000000000       0.000000000000000E+000   1.12739429158874     
  0.687671012625372       2.361114518853925E-002
  0.988571000000000       2.852000000000000E-003   1.07618931259144     
  0.740518625510525      -0.103061734937603     
  0.973714000000000       4.889000000000000E-003   1.06247767061010     
  0.768962502422161      -9.689924164079229E-002
  0.958857000000000       6.890000000000000E-003   1.05162745447181     
  0.788641855053171      -9.844813597096010E-002
  0.944000000000000       8.855000000000000E-003   1.04206521661455     
  0.806499490031633      -0.101610153200426     
  0.929143000000000       1.078600000000000E-002   1.03377586577573     
  0.822245753225146      -0.101959348379801     
  0.914286000000000       1.268400000000000E-002   1.02655956750310     
  0.835622380567519      -0.102670642263641     
  0.899429000000000       1.454800000000000E-002   1.02015234770464     
  0.847553530205416      -0.102619407473057     
  0.884571000000000       1.638100000000000E-002   1.01438471357345     
  0.858076902119879      -0.102433842053219     
  0.869714000000000       1.818300000000000E-002   1.00898175838858     
  0.867835150045808      -0.102100862805281     
  0.854857000000000       1.995300000000000E-002   1.00419775105035     
  0.876367820217201      -0.101605094523098     
  0.840000000000000       2.169400000000000E-002  0.999724689433695     
  0.884321763194518      -0.100824776800522     
  0.825143000000000       2.340400000000000E-002  0.995491579368779     
  0.891663284995159      -0.100294857434171     
  0.810286000000000       2.508500000000000E-002  0.991797631613147     
  0.898017212073243      -9.917786727364056E-002
  0.795429000000000       2.673600000000000E-002  0.988174512516334     
  0.904185667856607      -9.837567798116592E-002
  0.780571000000000       2.835800000000000E-002  0.985035376120283     
  0.909655077957839      -9.726539862587744E-002
  0.765714000000000       2.995100000000000E-002  0.982034571898456     
  0.914974908935678      -9.601570111086277E-002
  0.750857000000000       3.151400000000000E-002  0.979444756232707     
  0.919662167967279      -9.484904772938542E-002
  0.736000000000000       3.304700000000000E-002  0.977172286658661     
  0.923878041436008      -9.329611298680550E-002
  0.721143000000000       3.455100000000000E-002  0.974917491414834     
  0.927870141851668      -9.227102048799032E-002
  0.706286000000000       3.602500000000000E-002  0.973419826005132     
  0.930530535965995      -9.022475782920361E-002
  0.691429000000000       3.746800000000000E-002  0.971386489010603     
  0.933809453787124      -8.946280146828799E-002
  0.676571000000000       3.888000000000000E-002  0.970727080795937     
  0.934816801581311      -8.675481422953166E-002
  0.661714000000000       4.026000000000000E-002  0.968922406537491     
  0.937782897873444      -8.580278707886974E-002
  0.646857000000000       4.160700000000000E-002  0.968319370437050     
  0.937993544214245      -8.517116245270462E-002
  0.632000000000000       4.292100000000000E-002  0.969795459544306     
  0.936406036836692      -7.615672452122539E-002
  0.617143000000000       4.420100000000000E-002  0.941169534514059     
  0.976473743265497      -7.872989458952222E-002
  0.602286000000000       4.544500000000000E-002  0.769376903058179     
   1.24435632987910      -9.790941982907866E-002
  0.587429000000000       4.665300000000000E-002  0.627146080128864     
   1.47912006905129      -0.123957116521781     
  0.572571000000000       4.782300000000000E-002  0.605975264863189     
   1.51314546424599      -0.126257567214561     
  0.557714000000000       4.895300000000000E-002  0.608057078485114     
   1.51106358864649      -0.115262035147241     
  0.542857000000000       5.004300000000000E-002  0.610567855264425     
   1.50793409432009      -0.107986648446227     
  0.528000000000000       5.109000000000000E-002  0.612405953431344     
   1.50548467681626      -0.102190308322782     
  0.513143000000000       5.209200000000000E-002  0.614423524483532     
   1.50274220389700      -9.698631383473579E-002
  0.498286000000000       5.304800000000000E-002  0.616447576496961     
   1.50005676059577      -9.197849781529163E-002
  0.483429000000000       5.395600000000000E-002  0.618007651460453     
   1.49806298428132      -8.707505304143014E-002
  0.468571000000000       5.481200000000000E-002  0.619005173174299     
   1.49692011876377      -8.163950565624112E-002
  0.453714000000000       5.561500000000000E-002  0.620249441708427     
   1.49541759566225      -7.570148526546383E-002
  0.438857000000000       5.636200000000000E-002  0.621988364041269     
   1.49315493936045      -6.916199876514410E-002
  0.424000000000000       5.705100000000000E-002  0.624914792164516     
   1.48910712768951      -6.239072729372892E-002
  0.409143000000000       5.767700000000000E-002  0.628143193237047     
   1.48451461078073      -5.598723688892267E-002
  0.394286000000000       5.823800000000000E-002  0.631107863492310     
   1.48026608623225      -4.968887759585684E-002
  0.379429000000000       5.873000000000000E-002  0.632493180224951     
   1.47817732905139      -4.326526499171159E-002
  0.364571000000000       5.914900000000000E-002  0.632852112167786     
   1.47750477987495      -3.509021644328422E-002
  0.349714000000000       5.949200000000000E-002  0.634844666502334     
   1.47438221706601      -2.606031124483765E-002
  0.334857000000000       5.975300000000000E-002  0.638592977130970     
   1.46868684090194      -1.710882171962212E-002
  0.320000000000000       5.992800000000000E-002  0.643454425360705     
   1.46150791999303      -8.295186471391434E-003
  0.305143000000000       6.001100000000000E-002  0.647740670666685     
   1.45526160663011       5.359176383268448E-004
  0.290286000000000       5.999600000000000E-002  0.651037838100752     
   1.45038535626561       1.021623927601515E-002
  0.275429000000000       5.987800000000000E-002  0.653804677382172     
   1.44593277794413       2.102388687743628E-002
  0.260571000000000       5.964800000000000E-002  0.657861596282247     
   1.43918405783237       3.322067600800732E-002
  0.245714000000000       5.929900000000000E-002  0.664004282234938     
   1.42891904529476       4.512599730313129E-002
  0.230857000000000       5.882200000000000E-002  0.670689568801998     
   1.41733625752161       5.687665638568100E-002
  0.216000000000000       5.820600000000000E-002  0.676287281999717     
   1.40721760417397       6.844340854818608E-002
  0.205333000000000       5.767300000000000E-002  0.682612069255587     
   1.39509006623989       7.975349648248993E-002
  0.194667000000000       5.705700000000000E-002  0.686806922708360     
   1.38589475767168       8.940951459768193E-002
  0.184000000000000       5.635400000000000E-002  0.691041993552137     
   1.37901482980703       0.100694724798307     
  0.173333000000000       5.555700000000000E-002  0.694076808622957     
   1.37420675881610       0.112777460866836     
  0.162667000000000       5.465900000000000E-002  0.699305895831222     
   1.36547266320260       0.127921867649649     
  0.152000000000000       5.365300000000000E-002  0.708306271810062     
   1.35092664232575       0.141071616649739     
  0.141333000000000       5.252900000000000E-002  0.715637209078697     
   1.33799664133777       0.155016646240807     
  0.130667000000000       5.127600000000000E-002  0.723649668683339     
   1.32287310207039       0.170685189913397     
  0.120000000000000       4.988200000000000E-002  0.732188945772087     
   1.30554337952255       0.186419852608671     
  0.109333000000000       4.833000000000000E-002  0.739459300606619     
   1.28901315067899       0.203986934396001     
  9.866700000000000E-002  4.660100000000000E-002  0.748930698830780     
   1.26951489995042       0.223164152878612     
  8.799999999999999E-002  4.467100000000000E-002  0.760186382073528     
   1.24768104313607       0.244033686043626     
  7.733300000000000E-002  4.250700000000000E-002  0.772107989911465     
   1.22381211835699       0.268072695776978     
  6.666700000000000E-002  4.006700000000000E-002  0.782528845195817     
   1.19989443742901       0.296112078358698     
  5.600000000000000E-002  3.729000000000000E-002  0.791643912591161     
   1.17723116443880       0.327718749997592     
  4.800000000000000E-002  3.493200000000000E-002  0.815507310513443     
   1.13242976488397       0.357579075407300     
  4.000000000000000E-002  3.227700000000000E-002  0.844604219567065     
   1.07743670188439       0.386813054271678     
  3.200000000000000E-002  2.923700000000000E-002  0.876241895880020     
   1.01231726122547       0.422343628688214     
  2.400000000000000E-002  2.566400000000000E-002  0.910967569805938     
  0.930062091184467       0.467473881315607     
  1.600000000000000E-002  2.127000000000000E-002  0.953685992677484     
  0.804703378091195       0.535523020885129     
  8.000000000000000E-003  1.531500000000000E-002   1.14529141859361     
  0.441358457589755       0.509794472002731     
  -10.0000000000000       -10.0000000000000        1.00024970321792     
  0.999424799977709       2.165390687465442E-002
  -9.00000000000000       -10.0000000000000        1.00031378163949     
  0.999306811320252       2.145160371912073E-002
  -8.00000000000000       -10.0000000000000        1.00054477964327     
  0.998994751821492       2.123669968570007E-002
  -7.00000000000000       -10.0000000000000        1.00070617092269     
  0.998788252223029       2.101458355142872E-002
  -6.00000000000000       -10.0000000000000        1.00092725440539     
  0.998489222710144       2.074375626067706E-002
  -5.00000000000000       -10.0000000000000        1.00113280391544     
  0.998237026163284       2.051079655815051E-002
  -4.00000000000000       -10.0000000000000        1.00142291925746     
  0.997822429270836       2.019719790271244E-002
  -3.00000000000000       -10.0000000000000        1.00159580974444     
  0.997608781418939       1.987701428210369E-002
  -2.00000000000000       -10.0000000000000        1.00184667464423     
  0.997310438333577       1.965476671149336E-002
  -1.00000000000000       -10.0000000000000        1.00202961054565     
  0.997107174272325       1.942508885715245E-002
  0.000000000000000E+000  -10.0000000000000        1.00214847259770     
  0.997133631608419       1.922251630140730E-002
   1.00000000000000       -10.0000000000000        1.00226676783001     
  0.997150023359782       1.909982657921697E-002
   2.00000000000000       -10.0000000000000        1.00225081530844     
  0.997039930541574       1.911606403003123E-002
   3.00000000000000       -10.0000000000000        1.00227430761143     
  0.997056294963115       1.896769650331630E-002
   4.00000000000000       -10.0000000000000        1.00217638679223     
  0.997279492004534       1.912935689588952E-002
   5.00000000000000       -10.0000000000000        1.00209308943412     
  0.997499772512755       1.924889373288692E-002
   6.00000000000000       -10.0000000000000        1.00201009143759     
  0.997798162240933       1.939931333652518E-002
   7.00000000000000       -10.0000000000000        1.00172988369219     
  0.998214910420901       1.968439710944481E-002
   8.00000000000000       -10.0000000000000        1.00154427959352     
  0.998665535780718       1.996991724617884E-002
   9.00000000000000       -10.0000000000000        1.00116388790995     
  0.999177866807821       2.032573864830268E-002
   10.0000000000000       -10.0000000000000        1.00081364844985     
  0.999657329857497       2.066727206850847E-002
   10.0000000000000       -9.00000000000000        1.00050895822847     
  0.999614419354026       2.053192739136323E-002
   10.0000000000000       -8.00000000000000        1.00028728726452     
  0.999561703321807       2.012388282181604E-002
   10.0000000000000       -7.00000000000000        1.00022555910856     
  0.999703561832835       1.985266233459471E-002
   10.0000000000000       -6.00000000000000        1.00024618276444     
  0.999671427669006       1.961404214814470E-002
   10.0000000000000       -5.00000000000000        1.00023246782776     
  0.999740076550392       1.945870427558963E-002
   10.0000000000000       -4.00000000000000        1.00020105607163     
  0.999798480549566       1.938085917104904E-002
   10.0000000000000       -3.00000000000000        1.00033638204575     
  0.999733562930779       1.936162411610541E-002
   10.0000000000000       -2.00000000000000        1.00001110432633     
   1.00063093011576       1.968175666001996E-002
   10.0000000000000       -1.00000000000000       0.998627568541835     
   1.00094016518921       2.053571324338362E-002
   10.0000000000000       0.000000000000000E+000  0.996628976920242     
  0.997023014576633       1.932623385777375E-002
   10.0000000000000        1.00000000000000       0.997521199187815     
  0.999029756315797       1.707936603285173E-002
   10.0000000000000        2.00000000000000       0.999285551629499     
   1.00039537418840       1.694231447084918E-002
   10.0000000000000        3.00000000000000       0.999807363297201     
   1.00051258459851       1.781012211342914E-002
   10.0000000000000        4.00000000000000       0.999918454787722     
   1.00020623830146       1.812800250594844E-002
   10.0000000000000        5.00000000000000       0.999888125107557     
   1.00012072223250       1.844786154593153E-002
   10.0000000000000        6.00000000000000       0.999889948467970     
   1.00014138530211       1.871860133245562E-002
   10.0000000000000        7.00000000000000       0.999848652529876     
   1.00012709616664       1.907629156492151E-002
   10.0000000000000        8.00000000000000       0.999818830648538     
   1.00019006207550       1.944911833158760E-002
   10.0000000000000        9.00000000000000       0.999646184801759     
   1.00028380938942       2.001310278014550E-002
   10.0000000000000        10.0000000000000       0.999486929194982     
   1.00057895858200       2.040205205077448E-002
   9.00000000000000        10.0000000000000       0.998942872902548     
   1.00154819303574       2.002731416016552E-002
   8.00000000000000        10.0000000000000       0.998378205670846     
   1.00243630297778       1.955012555271861E-002
   7.00000000000000        10.0000000000000       0.997965784108625     
   1.00305236591320       1.905849991300612E-002
   6.00000000000000        10.0000000000000       0.997662066553513     
   1.00350158207300       1.872531699459824E-002
   5.00000000000000        10.0000000000000       0.997341037301496     
   1.00401654824648       1.832058589974757E-002
   4.00000000000000        10.0000000000000       0.997049957012332     
   1.00448561359041       1.806614180252112E-002
   3.00000000000000        10.0000000000000       0.996885876827452     
   1.00474908534741       1.795494024423437E-002
   2.00000000000000        10.0000000000000       0.996870943252779     
   1.00476552679591       1.810013831094774E-002
   1.00000000000000        10.0000000000000       0.997178223403547     
   1.00426343457535       1.854040824620061E-002
  0.000000000000000E+000   10.0000000000000       0.997640976217325     
   1.00351548926592       1.921504189418513E-002
  -1.00000000000000        10.0000000000000       0.998318630918171     
   1.00243958356520       2.008939501850295E-002
  -2.00000000000000        10.0000000000000       0.999124174448452     
   1.00114846344849       2.075175501063001E-002
  -3.00000000000000        10.0000000000000       0.999492647851759     
   1.00057333441295       2.145246040336694E-002
  -4.00000000000000        10.0000000000000       0.999916019433204     
  0.999913203789344       2.179458341898548E-002
  -5.00000000000000        10.0000000000000        1.00010314989209     
  0.999622105596985       2.204159720630763E-002
  -6.00000000000000        10.0000000000000        1.00021059546180     
  0.999460935724516       2.214488492426339E-002
  -7.00000000000000        10.0000000000000        1.00025085922846     
  0.999397497105846       2.216000326300475E-002
  -8.00000000000000        10.0000000000000        1.00022211863388     
  0.999433043344268       2.210976084380038E-002
  -9.00000000000000        10.0000000000000        1.00016735815018     
  0.999519053569367       2.201113577908344E-002
  -10.0000000000000        10.0000000000000        1.00012363510517     
  0.999597404903060       2.191839146331328E-002
  -10.0000000000000        9.00000000000000        1.00022082172193     
  0.999483394440007       2.189879152754122E-002
  -10.0000000000000        8.00000000000000        1.00033375861553     
  0.999339994781849       2.187025896968326E-002
  -10.0000000000000        7.00000000000000        1.00042665747930     
  0.999231766849656       2.190159600003547E-002
  -10.0000000000000        6.00000000000000        1.00050890884995     
  0.999133517896586       2.188717808740688E-002
  -10.0000000000000        5.00000000000000        1.00059277902423     
  0.999020961294804       2.188593052224757E-002
  -10.0000000000000        4.00000000000000        1.00068402096637     
  0.998907145076235       2.186982767499831E-002
  -10.0000000000000        3.00000000000000        1.00077215275770     
  0.998796486151914       2.186376106983548E-002
  -10.0000000000000        2.00000000000000        1.00084950866756     
  0.998700383731380       2.185406433915339E-002
  -10.0000000000000        1.00000000000000        1.00091497912151     
  0.998617213243271       2.184693969579324E-002
  -10.0000000000000       0.000000000000000E+000   1.00096732618437     
  0.998551644898545       2.184171663750765E-002
  -10.0000000000000       -1.00000000000000        1.00100213973918     
  0.998507142977374       2.183117223721241E-002
  -10.0000000000000       -2.00000000000000        1.00100988740823     
  0.998494353131875       2.181824813653090E-002
  -10.0000000000000       -3.00000000000000        1.00099537048526     
  0.998516646068727       2.180153853331504E-002
  -10.0000000000000       -4.00000000000000        1.00096836577039     
  0.998547170542557       2.179144713140454E-002
  -10.0000000000000       -5.00000000000000        1.00089988807313     
  0.998642226289615       2.178262611241432E-002
  -10.0000000000000       -6.00000000000000        1.00081278697889     
  0.998738338190888       2.173886750338018E-002
  -10.0000000000000       -7.00000000000000        1.00070236243984     
  0.998883383997970       2.171172358503901E-002
  -10.0000000000000       -8.00000000000000        1.00055638520991     
  0.999079741866083       2.169721822772796E-002
  -10.0000000000000       -9.00000000000000        1.00037136036489     
  0.999302098500870       2.176521213945440E-002
  5.143110000000000E-002 -4.397110000000000E-002  0.948970072768823     
   1.01418472862729      -0.284852431866760     
  5.127620000000000E-002  4.398150000000000E-002  0.820596315821333     
   1.17009206939056       0.339378723638667     
  6.058560000000000E-002 -4.642410000000000E-002  0.931662118994242     
   1.04620899751631      -0.263562755320294     
  6.047370000000000E-002  4.644660000000000E-002  0.803413261618100     
   1.20240350436679       0.309293499249628     
  4.257540000000000E-002  4.173380000000000E-002  0.852038940092044     
   1.11665476055458       0.365900332425269     
  4.279290000000000E-002 -4.174940000000000E-002  0.973967229238380     
  0.969087605391145      -0.304928838929683     
  5.490350000000000E-002 -5.265170000000000E-002  0.956787473218358     
   1.03123129041229      -0.264581919650689     
  5.464260000000000E-002  5.269330000000000E-002  0.834337315395486     
   1.19305345133106       0.321381396435555     
  7.048030000000000E-002  4.905560000000000E-002  0.793653926424217     
   1.22565566858487       0.281240912837932     
  7.056150000000000E-002 -4.902800000000000E-002  0.914046847228702     
   1.07972327249130      -0.243019394224460     
  3.360640000000000E-002  3.916830000000000E-002  0.889307285625096     
   1.05253690637846       0.394876295337228     
  3.389360000000000E-002 -3.923690000000000E-002   1.00534262531423     
  0.912805825753331      -0.324299725279409     
  4.634880000000000E-002 -5.070650000000000E-002  0.979134949633694     
  0.992440736239970      -0.281407177695907     
  4.598610000000000E-002  5.071930000000000E-002  0.862067557806818     
   1.14596145978300       0.348070692251488     
  6.399059999999999E-002 -5.545320000000000E-002  0.940852330924208     