 TITLE = "plot0012_p_ma"
 VARIABLES="X","Y","P","M"
 ZONE N=5306 ,E=10382 , F=FEPOINT, ET=TRIANGLE
  0.000000000000000E+000  0.000000000000000E+000   1.63005218264865     
  0.181205730937135     
  8.000000000000000E-003 -1.531500000000000E-002   1.47866760204594     
  0.386298690136828     
  1.600000000000000E-002 -2.127000000000000E-002   1.27867829959663     
  0.603524137480751     
  2.400000000000000E-002 -2.566400000000000E-002   1.19371223593589     
  0.689172601170359     
  3.200000000000000E-002 -2.923700000000000E-002   1.13433430788449     
  0.746491790658573     
  4.000000000000000E-002 -3.227700000000000E-002   1.08517904464756     
  0.792214557841114     
  4.800000000000000E-002 -3.493200000000000E-002   1.04729182885924     
  0.827289263971904     
  5.600000000000000E-002 -3.729000000000000E-002   1.01735913688011     
  0.854844980521994     
  6.666700000000000E-002 -4.006700000000000E-002  0.992986171722527     
  0.878029591607411     
  7.733300000000000E-002 -4.250700000000000E-002  0.966119181790859     
  0.904081142311042     
  8.799999999999999E-002 -4.467100000000000E-002  0.945788402310801     
  0.923978417655054     
  9.866700000000000E-002 -4.660100000000000E-002  0.926176753139148     
  0.943394654057041     
  0.109333000000000      -4.833000000000000E-002  0.910180641424748     
  0.960010971769269     
  0.120000000000000      -4.988200000000000E-002  0.896797651393490     
  0.974590143904295     
  0.130667000000000      -5.127600000000000E-002  0.884225598668174     
  0.988115316264063     
  0.141333000000000      -5.252900000000000E-002  0.872771679921052     
   1.00008825252930     
  0.152000000000000      -5.365300000000000E-002  0.863609742966122     
   1.00946153624423     
  0.162667000000000      -5.465900000000000E-002  0.854424228712494     
   1.01869466481274     
  0.173333000000000      -5.555700000000000E-002  0.841100270700852     
   1.03194420531151     
  0.184000000000000      -5.635400000000000E-002  0.830464008515765     
   1.04230784419536     
  0.194667000000000      -5.705700000000000E-002  0.823261572791939     
   1.04967176461356     
  0.205333000000000      -5.767300000000000E-002  0.815646119035805     
   1.05864492684958     
  0.216000000000000      -5.820600000000000E-002  0.810127747443515     
   1.06527456422423     
  0.230857000000000      -5.882200000000000E-002  0.806748030432104     
   1.06946773057691     
  0.245714000000000      -5.929900000000000E-002  0.800897951349255     
   1.07624364992650     
  0.260571000000000      -5.964800000000000E-002  0.795257533651172     
   1.08265656179853     
  0.275429000000000      -5.987800000000000E-002  0.789748418244659     
   1.08878496309589     
  0.290286000000000      -5.999600000000000E-002  0.784915897535565     
   1.09407690040617     
  0.305143000000000      -6.001100000000000E-002  0.781112731602439     
   1.09820230695980     
  0.320000000000000      -5.992800000000000E-002  0.778523789379716     
   1.10100437463615     
  0.334857000000000      -5.975300000000000E-002  0.777777603099226     
   1.10186644473584     
  0.349714000000000      -5.949200000000000E-002  0.783314321865609     
   1.09619507357450     
  0.364571000000000      -5.914900000000000E-002  0.818984648762822     
   1.05896748846298     
  0.379429000000000      -5.873000000000000E-002  0.895429709225645     
  0.983001518111219     
  0.394286000000000      -5.823800000000000E-002  0.939293912419815     
  0.942191707438768     
  0.409143000000000      -5.767700000000000E-002  0.929620390669488     
  0.951853447923272     
  0.424000000000000      -5.705100000000000E-002  0.930968957101359     
  0.950752491219838     
  0.438857000000000      -5.636200000000000E-002  0.940634987301479     
  0.941898692366754     
  0.453714000000000      -5.561500000000000E-002  0.945028419337078     
  0.937883699083908     
  0.468571000000000      -5.481200000000000E-002  0.951367276390594     
  0.931909583560163     
  0.483429000000000      -5.395600000000000E-002  0.957761591248861     
  0.925871014651654     
  0.498286000000000      -5.304800000000000E-002  0.963920433809651     
  0.920048791916433     
  0.513143000000000      -5.209200000000000E-002  0.970923652068783     
  0.913475642810358     
  0.528000000000000      -5.109000000000000E-002  0.977730411818672     
  0.907099091427906     
  0.542857000000000      -5.004300000000000E-002  0.984527040765957     
  0.900722724516803     
  0.557714000000000      -4.895300000000000E-002  0.991463465489521     
  0.894226604263898     
  0.572571000000000      -4.782300000000000E-002  0.998042375292205     
  0.888090195647489     
  0.587429000000000      -4.665300000000000E-002   1.00498296871901     
  0.881688175586540     
  0.602286000000000      -4.544500000000000E-002   1.01165719605915     
  0.875648919002073     
  0.617143000000000      -4.420100000000000E-002   1.01829321613880     
  0.869682142080494     
  0.632000000000000      -4.292100000000000E-002   1.02490012008911     
  0.863748315520479     
  0.646857000000000      -4.160700000000000E-002   1.03134794647176     
  0.857915195086676     
  0.661714000000000      -4.026000000000000E-002   1.03793342830374     
  0.851940208501478     
  0.676571000000000      -3.888000000000000E-002   1.04421662128936     
  0.846220451337399     
  0.691429000000000      -3.746800000000000E-002   1.05063375391303     
  0.840382756127742     
  0.706286000000000      -3.602500000000000E-002   1.05696234352515     
  0.834608171473982     
  0.721143000000000      -3.455100000000000E-002   1.06347351044918     
  0.828643318482995     
  0.736000000000000      -3.304700000000000E-002   1.06999024688152     
  0.822629508487408     
  0.750857000000000      -3.151400000000000E-002   1.07662340699975     
  0.816492352774574     
  0.765714000000000      -2.995100000000000E-002   1.08309509881191     
  0.810513977996045     
  0.780571000000000      -2.835800000000000E-002   1.09011800329280     
  0.804079776973484     
  0.795429000000000      -2.673600000000000E-002   1.09682954562782     
  0.797961681632953     
  0.810286000000000      -2.508500000000000E-002   1.10411849509208     
  0.791361811071390     
  0.825143000000000      -2.340400000000000E-002   1.11131973580828     
  0.784846265156797     
  0.840000000000000      -2.169400000000000E-002   1.11919322941030     
  0.777692864932792     
  0.854857000000000      -1.995300000000000E-002   1.12724690859760     
  0.770342482314329     
  0.869714000000000      -1.818300000000000E-002   1.13566547906684     
  0.762659404432623     
  0.884571000000000      -1.638100000000000E-002   1.14493755177589     
  0.754148356563105     
  0.899429000000000      -1.454800000000000E-002   1.15468407688534     
  0.745170851067623     
  0.914286000000000      -1.268400000000000E-002   1.16525145822429     
  0.735299909517330     
  0.929143000000000      -1.078600000000000E-002   1.17694162099951     
  0.724321706816580     
  0.944000000000000      -8.855000000000000E-003   1.19010284194540     
  0.711640861993635     
  0.958857000000000      -6.890000000000000E-003   1.20496039783677     
  0.696992033326293     
  0.973714000000000      -4.889000000000000E-003   1.22028677160811     
  0.681542812066436     
  0.988571000000000      -2.852000000000000E-003   1.23925426872086     
  0.661347626120240     
   1.00000000000000       0.000000000000000E+000   1.34134691706560     
  0.533138325249568     
  0.988571000000000       2.852000000000000E-003   1.26696111016966     
  0.582372055958137     
  0.973714000000000       4.889000000000000E-003   1.24506375977562     
  0.605098820340929     
  0.958857000000000       6.890000000000000E-003   1.22774909456574     
  0.621655383325895     
  0.944000000000000       8.855000000000000E-003   1.21236025147692     
  0.636929628645548     
  0.929143000000000       1.078600000000000E-002   1.19901166396011     
  0.650208464544318     
  0.914286000000000       1.268400000000000E-002   1.18739908937007     
  0.661596817454793     
  0.899429000000000       1.454800000000000E-002   1.17710149914349     
  0.671720939097390     
  0.884571000000000       1.638100000000000E-002   1.16786299193954     
  0.680675694990003     
  0.869714000000000       1.818300000000000E-002   1.15923845180016     
  0.688990971311700     
  0.854857000000000       1.995300000000000E-002   1.15162596653599     
  0.696266847641299     
  0.840000000000000       2.169400000000000E-002   1.14452741444120     
  0.703036611153445     
  0.825143000000000       2.340400000000000E-002   1.13784278082632     
  0.709323954106385     
  0.810286000000000       2.508500000000000E-002   1.13204440654841     
  0.714715193762344     
  0.795429000000000       2.673600000000000E-002   1.12635775087056     
  0.719991948197252     
  0.780571000000000       2.835800000000000E-002   1.12142117679090     
  0.724640909298797     
  0.765714000000000       2.995100000000000E-002   1.11668050832783     
  0.729159009340275     
  0.750857000000000       3.151400000000000E-002   1.11257096509729     
  0.733141770673296     
  0.736000000000000       3.304700000000000E-002   1.10896000640809     
  0.736684317997274     
  0.721143000000000       3.455100000000000E-002   1.10539734395516     
  0.740090361379864     
  0.706286000000000       3.602500000000000E-002   1.10307273622551     
  0.742243792323724     
  0.691429000000000       3.746800000000000E-002   1.09992950804390     
  0.745061006764571     
  0.676571000000000       3.888000000000000E-002   1.09897922498395     
  0.745724687450834     
  0.661714000000000       4.026000000000000E-002   1.09621332772341     
  0.748247914243083     
  0.646857000000000       4.160700000000000E-002   1.09536647532138     
  0.748425265003716     
  0.632000000000000       4.292100000000000E-002   1.09779415964418     
  0.746296436081780     
  0.617143000000000       4.420100000000000E-002   1.05252776735859     
  0.782926042929069     
  0.602286000000000       4.544500000000000E-002  0.791306397354693     
   1.04020321329472     
  0.587429000000000       4.665300000000000E-002  0.590144656830754     
   1.29319576463391     
  0.572571000000000       4.782300000000000E-002  0.562596161644682     
   1.33184087809997     
  0.557714000000000       4.895300000000000E-002  0.565425068878354     
   1.32819906223626     
  0.542857000000000       5.004300000000000E-002  0.568743096164792     
   1.32384762677756     
  0.528000000000000       5.109000000000000E-002  0.571171634213085     
   1.32052589824282     
  0.513143000000000       5.209200000000000E-002  0.573827053158701     
   1.31694153173028     
  0.498286000000000       5.304800000000000E-002  0.576483488256236     
   1.31344896336028     
  0.483429000000000       5.395600000000000E-002  0.578527032123914     
   1.31079132347998     
  0.468571000000000       5.481200000000000E-002  0.579835937811906     
   1.30910389839392     
  0.453714000000000       5.561500000000000E-002  0.581475583894512     
   1.30698822566110     
  0.438857000000000       5.636200000000000E-002  0.583780560048903     
   1.30398490396921     
  0.424000000000000       5.705100000000000E-002  0.587667382692833     
   1.29893492505691     
  0.409143000000000       5.767700000000000E-002  0.591971506280097     
   1.29332606873998     
  0.394286000000000       5.823800000000000E-002  0.595948202055545     
   1.28815419800410     
  0.379429000000000       5.873000000000000E-002  0.597853185643831     
   1.28552084088844     
  0.364571000000000       5.914900000000000E-002  0.598422430536808     
   1.28450119292779     
  0.349714000000000       5.949200000000000E-002  0.601167676775646     
   1.28070713003620     
  0.334857000000000       5.975300000000000E-002  0.606243546203820     
   1.27404028182641     
  0.320000000000000       5.992800000000000E-002  0.612785594545964     
   1.26575244969659     
  0.305143000000000       6.001100000000000E-002  0.618540725247072     
   1.25861678938446     
  0.290286000000000       5.999600000000000E-002  0.622991906857158     
   1.25311831773135     
  0.275429000000000       5.987800000000000E-002  0.626794407605971     
   1.24822089003152     
  0.260571000000000       5.964800000000000E-002  0.632424931097619     
   1.24088282117903     
  0.245714000000000       5.929900000000000E-002  0.640967973241591     
   1.22977977114496     
  0.230857000000000       5.882200000000000E-002  0.650367141917765     
   1.21741813432321     
  0.216000000000000       5.820600000000000E-002  0.658346213153949     
   1.20683740071349     
  0.205333000000000       5.767300000000000E-002  0.667537868369053     
   1.19425140526055     
  0.194667000000000       5.705700000000000E-002  0.673766553017421     
   1.18503382627195     
  0.184000000000000       5.635400000000000E-002  0.679583700390244     
   1.17839361282033     
  0.173333000000000       5.555700000000000E-002  0.683659921910004     
   1.17416563531990     
  0.162667000000000       5.465900000000000E-002  0.690893187625467     
   1.16612370386802     
  0.152000000000000       5.365300000000000E-002  0.703390880851038     
   1.15195376431241     
  0.141333000000000       5.252900000000000E-002  0.713733833924656     
   1.13989456284660     
  0.130667000000000       5.127600000000000E-002  0.725272479799206     
   1.12603789530370     
  0.120000000000000       4.988200000000000E-002  0.737791149920190     
   1.11033773007062     
  0.109333000000000       4.833000000000000E-002  0.748654092189498     
   1.09617768567930     
  9.866700000000000E-002  4.660100000000000E-002  0.762520043533282     
   1.07963626498410     
  8.799999999999999E-002  4.467100000000000E-002  0.778778763342509     
   1.06156025010406     
  7.733300000000000E-002  4.250700000000000E-002  0.796088434619729     
   1.04276381301406     
  6.666700000000000E-002  4.006700000000000E-002  0.811402237210966     
   1.02576666744904     
  5.600000000000000E-002  3.729000000000000E-002  0.824781862398375     
   1.01181461801062     
  4.800000000000000E-002  3.493200000000000E-002  0.859554531701298     
  0.977603588246610     
  4.000000000000000E-002  3.227700000000000E-002  0.902304739605499     
  0.936059680786115     
  3.200000000000000E-002  2.923700000000000E-002  0.949482949118212     
  0.890566119161830     
  2.400000000000000E-002  2.566400000000000E-002   1.00238529399974     
  0.838675666783319     
  1.600000000000000E-002  2.127000000000000E-002   1.06784353553459     
  0.772032509782081     
  8.000000000000000E-003  1.531500000000000E-002   1.36838071541470     
  0.521371293916680     
  -10.0000000000000       -10.0000000000000        1.11645941430356     
  0.799688342585796     
  -9.00000000000000       -10.0000000000000        1.11655342516960     
  0.799582436784925     
  -8.00000000000000       -10.0000000000000        1.11690864481248     
  0.799294343272930     
  -7.00000000000000       -10.0000000000000        1.11715144301441     
  0.799103037450857     
  -6.00000000000000       -10.0000000000000        1.11747983572276     
  0.798830207564740     
  -5.00000000000000       -10.0000000000000        1.11779417276300     
  0.798594365389548     
  -4.00000000000000       -10.0000000000000        1.11824135151200     
  0.798213715901688     
  -3.00000000000000       -10.0000000000000        1.11848894520904     
  0.798018279184949     
  -2.00000000000000       -10.0000000000000        1.11886078979508     
  0.797743504268731     
  -1.00000000000000       -10.0000000000000        1.11913775562209     
  0.797551485710595     
  0.000000000000000E+000  -10.0000000000000        1.11929152298614     
  0.797562014226696     
   1.00000000000000       -10.0000000000000        1.11943731692360     
  0.797568365205155     
   2.00000000000000       -10.0000000000000        1.11942968248129     
  0.797476961607436     
   3.00000000000000       -10.0000000000000        1.11944625225989     
  0.797491224347886     
   4.00000000000000       -10.0000000000000        1.11927767649467     
  0.797693249134033     
   5.00000000000000       -10.0000000000000        1.11913817945930     
  0.797887782259265     
   6.00000000000000       -10.0000000000000        1.11897844761631     
  0.798152609176668     
   7.00000000000000       -10.0000000000000        1.11856412065973     
  0.798526503465153     
   8.00000000000000       -10.0000000000000        1.11828255725517     
  0.798917919443527     
   9.00000000000000       -10.0000000000000        1.11769890945935     
  0.799390174541807     
   10.0000000000000       -10.0000000000000        1.11715254600743     
  0.799834817957936     
   10.0000000000000       -9.00000000000000        1.11673755657249     
  0.799825082920782     
   10.0000000000000       -8.00000000000000        1.11648443602874     
  0.799778324740530     
   10.0000000000000       -7.00000000000000        1.11639409730425     
  0.799895127399022     
   10.0000000000000       -6.00000000000000        1.11644310666033     
  0.799856348190316     
   10.0000000000000       -5.00000000000000        1.11643169093198     
  0.799907432046094     
   10.0000000000000       -4.00000000000000        1.11638299429594     
  0.799957820311428     
   10.0000000000000       -3.00000000000000        1.11652366677109     
  0.799909315550131     
   10.0000000000000       -2.00000000000000        1.11601412680765     
  0.800684587024221     
   10.0000000000000       -1.00000000000000        1.11433831382121     
  0.800993016921534     
   10.0000000000000       0.000000000000000E+000   1.11292778821501     
  0.797546486441910     
   10.0000000000000        1.00000000000000        1.11356483576447     
  0.799247302900391     
   10.0000000000000        2.00000000000000        1.11535779107998     
  0.800401021748871     
   10.0000000000000        3.00000000000000        1.11574303544370     
  0.800577559253755     
   10.0000000000000        4.00000000000000        1.11594755588278     
  0.800308192821900     
   10.0000000000000        5.00000000000000        1.11595031497713     
  0.800231342648208     
   10.0000000000000        6.00000000000000        1.11591078568709     
  0.800266797311724     
   10.0000000000000        7.00000000000000        1.11589225618458     
  0.800250892087583     
   10.0000000000000        8.00000000000000        1.11579460730084     
  0.800330082039880     
   10.0000000000000        9.00000000000000        1.11561464308039     
  0.800409407917729     
   10.0000000000000        10.0000000000000        1.11530289583627     
  0.800699871940639     
   9.00000000000000        10.0000000000000        1.11437254367142     
  0.801585351703746     
   8.00000000000000        10.0000000000000        1.11350943522972     
  0.802372330750549     
   7.00000000000000        10.0000000000000        1.11288682703393     
  0.802916342289149     
   6.00000000000000        10.0000000000000        1.11242249041524     
  0.803316140873799     
   5.00000000000000        10.0000000000000        1.11192939488547     
  0.803771098109106     
   4.00000000000000        10.0000000000000        1.11148253454862     
  0.804187051161490     
   3.00000000000000        10.0000000000000        1.11122776629952     
  0.804422329331416     
   2.00000000000000        10.0000000000000        1.11120372167696     
  0.804440251440603     
   1.00000000000000        10.0000000000000        1.11168260774884     
  0.803995507380764     
  0.000000000000000E+000   10.0000000000000        1.11240475877081     
  0.803332589380940     
  -1.00000000000000        10.0000000000000        1.11345539199578     
  0.802379018110413     
  -2.00000000000000        10.0000000000000        1.11470832164358     
  0.801229368641264     
  -3.00000000000000        10.0000000000000        1.11528728283981     
  0.800720841790572     
  -4.00000000000000        10.0000000000000        1.11595239452942     
  0.800129637177399     
  -5.00000000000000        10.0000000000000        1.11624300829798     
  0.799871845298945     
  -6.00000000000000        10.0000000000000        1.11640933444793     
  0.799728149333254     
  -7.00000000000000        10.0000000000000        1.11647228311591     
  0.799671232317596     
  -8.00000000000000        10.0000000000000        1.11642987829265     
  0.799702468671895     
  -9.00000000000000        10.0000000000000        1.11634293716734     
  0.799778764086494     
  -10.0000000000000        10.0000000000000        1.11627412652599     
  0.799846966115513     
  -10.0000000000000        9.00000000000000        1.11641680751161     
  0.799743186178910     
  -10.0000000000000        8.00000000000000        1.11658918535166     
  0.799611413122616     
  -10.0000000000000        7.00000000000000        1.11673979350937     
  0.799508612333484     
  -10.0000000000000        6.00000000000000        1.11687281381199     
  0.799415038848005     
  -10.0000000000000        5.00000000000000        1.11700328573841     
  0.799311818700657     
  -10.0000000000000        4.00000000000000        1.11713973649171     
  0.799208142028884     
  -10.0000000000000        3.00000000000000        1.11727756573882     
  0.799105436979438     
  -10.0000000000000        2.00000000000000        1.11739947060245     
  0.799015707274160     
  -10.0000000000000        1.00000000000000        1.11749934017060     
  0.798939502085860     
  -10.0000000000000       0.000000000000000E+000   1.11758127211668     
  0.798878583197602     
  -10.0000000000000       -1.00000000000000        1.11763864301225     
  0.798836200533596     
  -10.0000000000000       -2.00000000000000        1.11765046815783     
  0.798824612717711     
  -10.0000000000000       -3.00000000000000        1.11762579880669     
  0.798845171125302     
  -10.0000000000000       -4.00000000000000        1.11758147419091     
  0.798874469616835     
  -10.0000000000000       -5.00000000000000        1.11747671793597     
  0.798960444548534     
  -10.0000000000000       -6.00000000000000        1.11734612271168     
  0.799048463857825     
  -10.0000000000000       -7.00000000000000        1.11716470457966     
  0.799184775336307     
  -10.0000000000000       -8.00000000000000        1.11694234501177     
  0.799362803008760     
  -10.0000000000000       -9.00000000000000        1.11665628702859     
  0.799570273912111     
  5.143110000000000E-002 -4.397110000000000E-002   1.04563212530568     
  0.848160108822546     
  5.127620000000000E-002  4.398150000000000E-002  0.859376130059770     
   1.00616451696246     
  6.058560000000000E-002 -4.642410000000000E-002   1.01920939344975     
  0.871793154340172     
  6.047370000000000E-002  4.644660000000000E-002  0.834500725007316     
   1.02956783457549     
  4.257540000000000E-002  4.173380000000000E-002  0.905112595605066     
  0.963562600816592     
  4.279290000000000E-002 -4.174940000000000E-002   1.08393560852842     
  0.813897867920972     
  5.490350000000000E-002 -5.265170000000000E-002   1.04988919412961     
  0.858957272356252     
  5.464260000000000E-002  5.269330000000000E-002  0.870203639069433     
   1.02251078338781     
  7.048030000000000E-002  4.905560000000000E-002  0.819919835458799     
   1.04562724642085     
  7.056150000000000E-002 -4.902800000000000E-002  0.991940610598956     
  0.897885050450674     
  3.360640000000000E-002  3.916830000000000E-002  0.959855564267689     
  0.914516364335853     
  3.389360000000000E-002 -3.923690000000000E-002   1.13233829176155     
  0.771428032589436     
  4.634880000000000E-002 -5.070650000000000E-002   1.08417332995012     
  0.828523751921522     
  4.598610000000000E-002  5.071930000000000E-002  0.910582364752774     
  0.984870801275106     
  6.399059999999999E-002 -5.545320000000000E-002   1.02551158222618     
  0.880696466043359     
  6.379490000000000E-002  5.551010000000000E-002  0.852446687976512     
   1.03967566659664     
  2.466420000000000E-002 -3.586080000000000E-002   1.19283324587257     
  0.717446804204271     
  2.436250000000000E-002  3.571600000000000E-002   1.02073079121046     
  0.860276080279902     
  8.082190000000000E-002  5.145000000000000E-002  0.801379662095510     
   1.06511554307987     
  8.087930000000000E-002 -5.142190000000000E-002  0.968215872126401     
  0.920250574359150     
  3.713260000000000E-002 -4.930870000000000E-002   1.13101078561298     
  0.786538264017845     
  3.660650000000000E-002  4.925580000000000E-002  0.969152752474988     
  0.931803302857831     
 -3.089500000000000E-003  1.051130000000000E-002   1.56134447106579     
  0.337852921877550     
 -2.165700000000000E-003 -1.132000000000000E-002   1.61770895033732     
  0.233312413572241     
  1.519940000000000E-002  3.112640000000000E-002   1.10741690052669     
  0.783470804873714     
  1.534390000000000E-002 -3.127410000000000E-002   1.27637351365464     
  0.642481831912790     
  5.722880000000000E-002 -6.134940000000000E-002   1.05725060101271     
  0.849191225969502     
  5.687440000000000E-002  6.143860000000000E-002  0.887321817422403     
   1.00685273266695     
  7.394870000000001E-002 -5.819850000000000E-002  0.998637492790857     
  0.905119877041494     
  7.380740000000000E-002  5.825970000000000E-002  0.833409771406986     
   1.05850113468595     
  4.991620000000000E-002 -5.785540000000000E-002   1.07995255250255     
  0.829149633453770     
  4.948690000000000E-002  5.791390000000000E-002  0.910601982466964     
  0.985309431644454     
 -9.817200000000000E-003  3.942100000000000E-003   1.59214098466573     
  0.296957080457178     
 -9.246500000000000E-003 -5.897400000000000E-003   1.61334377432404     
  0.261771325213087     
  9.119380000000001E-002  5.356190000000000E-002  0.783907678722569     
   1.08315319733808     
  9.123390000000001E-002 -5.353580000000000E-002  0.948264654639156     
  0.939143238467072     
  6.335600000000000E-003 -2.532790000000000E-002   1.38003008420121     
  0.542242818806845     
  6.393600000000000E-003  2.552280000000000E-002   1.21969558419545     
  0.689879043868934     
 -1.107630000000000E-002  1.362110000000000E-002   1.52328176261233     
  0.416603126061108     
 -8.985699999999999E-003 -1.613910000000000E-002   1.55640557301098     
  0.368451546485704     
  2.612030000000000E-002  4.672500000000000E-002   1.04077548740415     
  0.868092007552773     
  2.682490000000000E-002 -4.693210000000000E-002   1.19128662770737     
  0.732790364533023     
 -1.650230000000000E-002 -1.502600000000000E-003   1.56737662742567     
  0.345463981746613     
  6.678840000000000E-002 -6.489200000000001E-002   1.03162747458510     
  0.872828503107091     
  6.652350000000000E-002  6.499600000000000E-002  0.867521101318879     
   1.02614801012695     
 -2.505700000000000E-003  1.965320000000000E-002   1.42629680976521     
  0.513376058401693     
 -5.480000000000000E-004 -1.924750000000000E-002   1.50511213835870     
  0.419321920233661     
  0.101438900000000       5.560210000000000E-002  0.767911281427795     
   1.10058132102371     
  0.101468200000000      -5.557770000000000E-002  0.928875385113565     
  0.957908474671780     
 -1.889310000000000E-002  6.889500000000000E-003   1.53275309563576     
  0.394515911863003     
  8.422760000000000E-002 -6.048310000000000E-002  0.976293515353995     
  0.925580838520764     
  8.412920000000000E-002  6.054080000000000E-002  0.813121854830685     
   1.07859552604164     
  4.200440000000000E-002 -5.856840000000000E-002   1.11954523831578     
  0.793214546868387     
  4.136930000000000E-002  5.859930000000000E-002  0.962072619522861     
  0.937334200554264     
 -1.791240000000000E-002 -1.037510000000000E-002   1.54545391047080     
  0.374280845522454     
  4.918840000000000E-002 -6.583749999999999E-002   1.09532958026551     
  0.814326531768678     
  4.860320000000000E-002  6.595479999999999E-002  0.936609441381122     
  0.959986819687856     
  0.111718400000000       5.778020000000000E-002  0.755403958400423     
   1.11581159414522     
  0.111741800000000      -5.775580000000000E-002  0.914976418418775     
  0.972169298828953     
  1.528020000000000E-002  4.231480000000000E-002   1.12743639989604     
  0.791570593641237     
  1.597960000000000E-002 -4.277460000000000E-002   1.26586504876101     
  0.665735689913854     
 -1.806390000000000E-002 -2.186170000000000E-002   1.49865178999472     
  0.427301343479984     
  5.869340000000000E-002 -7.117440000000000E-002   1.06684480988092     
  0.841424871352572     
  5.824230000000000E-002  7.133580000000000E-002  0.906467301609997     
  0.989132123177300     
 -2.033150000000000E-002  1.728500000000000E-002   1.48269700593132     
  0.447542901732602     
  7.730700000000000E-002 -6.771240000000001E-002   1.00503190763043     
  0.897304439030518     
  7.712140000000001E-002  6.781330000000001E-002  0.845437601106023     
   1.04785833847931     
  0.122311700000000       5.992940000000000E-002  0.743797783064674     
   1.13002580113485     
  0.122331300000000      -5.990390000000000E-002  0.902115245161511     
  0.985324577120405     
  9.418269999999999E-002 -6.234180000000000E-002  0.955960308694140     
  0.944609520622886     
  9.411369999999999E-002  6.239350000000000E-002  0.795047231316183     
   1.09664402305800     
 -1.170440000000000E-002  2.338800000000000E-002   1.45109018581173     
  0.477203793616965     
  5.198900000000000E-003  3.621470000000000E-002   1.22948055558727     
  0.699374971502570     
  5.144400000000000E-003 -3.671300000000000E-002   1.36423012383759     
  0.574813737887613     
  3.102730000000000E-002 -5.853690000000000E-002   1.17491816159616     
  0.744290653839156     